<?xml version="1.0"?>
<VTKFile type="UnstructuredGrid" version="0.1" byte_order="LittleEndian" header_type="UInt32" compressor="vtkZLibDataCompressor">
  <UnstructuredGrid>
    <Piece NumberOfPoints="11456" NumberOfCells="5728">
      <PointData>
      </PointData>
      <CellData Scalars="values">
        <DataArray type="Int64" Name="values" format="ascii" RangeMin="0" RangeMax="27">
          0 1 2 1 2 1
          3 2 3 2 3 2
          3 0 4 2 5 2
          2 2 2 2 2 2
          2 2 6 1 0 2
          5 5 2 5 2 2
          5 5 2 2 2 2
          2 2 2 7 2 2
          7 2 2 5 2 5
          0 8 9 10 0 9
          11 9 1 0 4 2
          7 2 6 7 9 1
          1 1 7 1 7 9
          1 11 9 1 9 9
          9 1 9 9 7 11
          9 12 9 9 9 9
          9 9 12 9 12 9
          9 9 9 9 9 9
          9 9 9 12 9 9
          9 9 6 1 9 1
          9 1 0 0 0 4
          1 6 3 6 1 7
          7 7 7 1 7 7
          1 7 1 1 1 7
          0 4 1 7 1 7
          1 7 1 7 1 1
          7 7 1 7 1 7
          1 7 1 7 1 1
          7 1 7 7 1 7
          7 1 7 1 7 1
          7 0 7 1 3 7
          3 7 3 3 7 3
          3 13 13 7 7 2
          7 6 1 7 0 2
          2 7 2 2 2 2
          2 7 6 0 3 1
          7 1 7 1 7 1
          7 7 7 1 7 7
          1 7 1 7 0 6
          14 9 9 1 1 9
          1 0 6 14 9 9
          1 1 9 1 1 7
          15 6 1 6 1 6
          1 6 1 1 2 2
          2 5 2 2 2 5
          2 5 2 2 5 2
          5 2 5 2 5 2
          5 2 5 1 5 2
          0 7 6 7 7 9
          7 9 2 7 2 7
          2 7 2 16 2 7
          2 2 16 2 2 5
          7 3 3 7 3 3
          3 3 3 3 1 11
          7 1 7 7 11 11
          7 13 1 1 11 7
          6 1 1 13 1 0
          6 7 13 7 7 0
          4 1 7 7 1 7
          1 7 7 1 7 7
          1 7 1 7 1 7
          1 7 1 7 1 7
          1 7 1 7 1 7
          1 7 7 1 7 1
          7 1 11 7 11 7
          1 7 1 7 1 7
          1 1 7 7 1 6
          7 1 7 1 7 1
          7 0 2 2 7 2
          7 2 7 2 7 1
          0 6 1 1 7 9
          7 0 7 7 1 7
          1 1 7 1 7 1
          1 8 8 8 0 6
          7 2 1 1 1 7
          7 1 7 1 7 0
          2 2 2 7 2 7
          2 2 2 2 2 2
          2 2 2 2 2 2
          5 7 7 1 0 7
          1 7 1 7 1 7
          1 7 1 7 1 7
          1 1 7 1 7 1
          7 1 7 1 7 1
          7 1 7 1 7 1
          7 4 1 7 1 2
          7 1 1 1 7 1
          7 1 7 1 0 7
          7 11 7 7 11 1
          0 7 6 1 7 1
          7 1 7 1 7 1
          7 0 7 4 1 7
          1 1 1 7 1 7
          1 7 1 7 1 7
          1 7 1 7 1 7
          1 7 1 7 7 1
          7 1 7 0 7 4
          1 7 7 7 1 7
          7 1 7 1 7 1
          7 1 15 7 1 15
          1 7 1 7 1 7
          1 7 1 1 1 1
          1 9 9 9 9 1
          9 1 9 9 9 1
          9 1 9 0 7 1
          7 1 7 1 7 1
          7 1 7 1 7 1
          7 1 7 0 6 7
          1 7 1 7 7 9
          1 0 6 1 1 7
          6 1 7 1 1 1
          1 1 1 7 1 7
          1 7 1 1 7 1
          7 1 7 1 7 0
          6 1 7 1 1 1
          0 2 2 2 2 2
          2 2 2 7 6 6
          1 6 6 1 1 1
          0 4 7 1 7 7
          7 1 7 0 4 7
          1 7 7 1 7 1
          0 7 2 2 2 2
          2 2 2 2 2 2
          2 0 1 1 7 1
          7 1 1 7 1 7
          1 7 1 7 1 0
          7 7 7 9 9 9
          9 7 7 7 1 7
          0 6 1 7 7 6
          0 1 1 7 1 7
          1 7 1 7 1 7
          1 1 1 7 1 7
          1 7 1 7 0 3
          7 3 7 3 3 3
          0 7 6 7 6 7
          1 6 7 1 7 7
          1 7 1 7 1 7
          1 7 1 7 1 7
          1 7 1 7 17 1
          17 7 7 9 1 1
          1 1 7 6 6 1
          6 7 6 7 1 7
          7 1 7 7 7 7
          7 7 7 7 7 1
          7 7 7 1 1 6
          1 6 1 7 1 6
          7 6 7 6 7 7
          7 7 6 7 7 6
          18 7 7 7 7 7
          7 7 7 7 7 9
          2 0 2 7 6 7
          1 7 1 7 1 7
          9 1 9 9 9 9
          9 9 9 0 7 6
          1 19 9 1 9 20
          9 0 2 2 5 2
          2 2 2 2 0 2
          2 2 2 7 2 2
          7 2 2 2 5 5
          1 2 2 2 2 2
          2 2 5 6 7 6
          7 5 7 7 6 6
          1 1 1 1 0 6
          7 1 7 1 7 7
          1 7 1 6 1 9
          0 2 2 2 2 5
          2 2 2 2 2 5
          2 2 2 2 2 2
          2 5 2 2 2 2
          2 2 2 5 2 5
          2 0 0 7 7 1
          7 1 6 1 6 1
          6 7 6 2 2 2
          2 2 6 2 2 2
          2 2 2 2 2 2
          7 2 11 7 1 7
          1 7 7 21 1 21
          1 7 1 1 1 1
          1 1 1 6 9 0
          1 2 2 2 2 2
          2 2 2 2 2 7
          1 7 1 7 1 7
          1 7 1 7 1 7
          1 7 1 7 1 7
          1 7 1 7 1 7
          1 7 1 7 1 7
          1 7 1 7 1 7
          1 7 1 7 1 7
          1 7 1 7 1 0
          4 7 1 7 1 7
          1 2 6 2 2 2
          7 19 1 19 1 19
          1 19 7 2 7 7
          5 5 7 7 5 19
          11 7 7 1 7 1
          7 1 1 7 1 7
          1 7 1 7 1 7
          11 7 11 7 1 7
          11 6 6 7 7 7
          9 7 7 7 1 7
          7 2 7 9 1 9
          7 9 7 7 9 7
          7 7 7 7 7 7
          7 11 7 11 7 7
          11 7 7 9 11 7
          2 2 2 2 2 2
          2 7 1 22 22 0
          4 5 2 2 2 2
          2 2 5 7 6 7
          9 7 1 1 1 7
          7 7 1 7 9 1
          7 7 7 1 1 5
          7 7 7 0 7 7
          5 5 2 2 2 2
          2 2 5 2 1 17
          2 7 2 2 7 2
          5 17 17 17 5 17
          17 17 5 2 7 7
          1 0 7 6 7 6
          7 7 1 7 1 7
          1 7 7 1 7 1
          7 7 1 6 1 0
          11 7 7 9 7 7
          9 7 7 7 7 1
          7 7 1 7 6 7
          1 9 1 9 1 0
          2 2 2 5 2 2
          7 2 2 2 2 2
          2 2 2 2 2 2
          2 2 2 21 11 11
          11 18 9 11 2 11
          17 11 11 13 11 17
          11 13 11 13 11 13
          11 13 23 2 11 17
          13 11 13 24 23 13
          24 11 13 11 13 11
          24 13 25 13 11 13
          11 13 9 9 9 13
          23 11 9 0 7 1
          1 7 7 1 7 7
          7 7 7 1 7 11
          7 11 18 7 11 18
          7 18 11 18 18 7
          18 7 18 7 18 9
          11 9 11 9 11 18
          9 11 9 11 9 11
          9 11 9 11 9 11
          18 11 9 11 9 11
          2 15 2 15 2 6
          9 9 9 1 9 9
          1 9 9 9 9 9
          9 9 9 1 9 9
          12 9 9 9 9 9
          9 9 12 9 9 1
          9 9 9 9 9 9
          1 2 1 7 4 7
          7 1 7 5 2 7
          7 6 6 1 1 7
          7 7 1 1 7 7
          1 7 1 7 1 7
          1 4 7 2 2 6
          7 7 2 7 2 2
          2 2 5 2 2 2
          2 2 1 9 1 9
          1 9 11 9 1 9
          9 9 9 0 2 2
          2 2 2 2 2 2
          2 2 2 2 2 2
          2 2 2 0 4 2
          2 5 7 7 6 1
          6 1 6 6 1 6
          6 6 1 6 6 6
          1 6 6 6 1 6
          6 6 6 6 6 1
          6 1 6 6 7 6
          6 1 6 1 1 6
          1 1 1 1 7 6
          6 6 6 6 6 6
          1 1 7 7 1 1
          7 1 7 1 6 1
          1 1 1 7 0 1
          1 1 1 7 1 1
          1 1 7 6 1 1
          1 7 1 1 7 1
          1 6 0 4 1 1
          1 1 1 7 1 7
          6 1 7 1 7 1
          7 1 7 1 7 1
          1 7 1 7 7 1
          7 1 1 7 6 9
          1 7 11 9 7 7
          0 7 7 7 1 7
          1 1 1 7 1 7
          1 7 1 7 1 7
          1 7 1 0 1 7
          7 1 7 7 0 7
          7 9 9 7 9 1
          7 7 7 7 7 7
          11 7 7 7 7 7
          7 7 7 7 7 7
          1 7 2 7 2 11
          7 11 2 7 2 7
          2 7 2 7 2 7
          2 2 2 7 2 0
          7 16 1 1 19 7
          7 19 6 19 7 19
          7 19 7 19 9 0
          7 1 7 7 9 7
          9 7 1 0 1 7
          7 7 7 7 7 1
          7 9 9 9 9 9
          9 9 9 9 9 9
          9 9 9 9 9 9
          9 9 9 9 9 9
          9 9 9 9 9 7
          1 2 0 1 7 1
          7 7 7 7 7 7
          7 7 7 7 7 18
          18 18 1 18 1 2
          5 2 1 5 5 2
          5 2 2 1 2 5
          18 0 2 2 2 2
          2 2 2 2 2 2
          2 5 13 7 6 0
          2 2 2 5 2 2
          5 7 2 7 2 2
          5 2 2 2 2 2
          2 2 2 2 2 1
          5 6 7 0 2 2
          2 2 2 2 2 7
          1 6 1 1 6 1
          7 7 7 7 9 7
          9 7 1 6 7 1
          7 1 7 1 7 1
          7 1 7 1 7 1
          7 1 7 1 7 1
          7 1 7 1 7 7
          0 2 7 7 7 7
          9 9 1 0 7 7
          6 7 6 3 2 5
          2 3 2 2 1 6
          1 13 1 15 18 1
          13 1 13 1 18 13
          1 13 1 18 18 1
          18 1 18 18 18 1
          18 18 1 18 2 7
          18 2 15 11 18 2
          18 18 7 18 2 2
          15 18 2 13 15 13
          2 1 7 1 7 1
          7 1 19 1 1 19
          1 1 19 1 11 1
          6 19 18 7 2 2
          2 19 2 7 17 17
          11 1 17 1 17 7
          6 7 7 9 7 9
          3 9 3 3 3 3
          3 3 3 3 3 3
          3 0 2 2 2 1
          2 2 2 2 7 2
          7 1 0 4 1 1
          1 1 1 7 7 1
          7 7 7 7 1 7
          1 7 7 1 7 1
          7 1 7 1 7 1
          7 1 7 1 7 1
          7 1 7 1 7 1
          7 7 0 4 7 1
          7 1 7 1 7 7
          1 7 1 7 7 7
          1 7 1 7 1 7
          1 7 1 7 1 7
          7 1 0 4 7 6
          7 7 9 1 7 1
          7 1 7 1 7 7
          7 1 7 7 7 7
          1 1 7 0 2 2
          2 17 17 2 17 2
          2 2 17 5 17 17
          2 2 2 5 2 2
          5 5 2 2 2 2
          1 1 1 7 7 7
          1 1 7 1 7 1
          7 0 1 7 6 0
          7 1 7 1 1 7
          1 7 1 1 1 1
          7 1 7 1 7 1
          7 1 7 1 7 1
          7 11 7 1 7 1
          7 1 0 7 2 5
          2 5 2 5 2 2
          6 1 9 1 9 9
          1 1 9 1 9 9
          1 9 1 9 1 1
          9 1 9 1 6 9
          9 1 9 1 1 9
          9 1 1 9 1 9
          1 1 1 1 9 1
          9 1 12 1 1 9
          1 1 1 7 7 1
          7 1 7 7 7 7
          1 7 1 7 6 1
          7 7 0 4 1 7
          1 7 1 7 1 0
          1 6 7 7 7 13
          13 13 13 13 18 18
          13 13 0 6 7 7
          7 7 7 7 1 1
          1 26 7 7 7 7
          7 7 7 7 7 7
          7 7 7 0 6 1
          19 6 7 7 11 7
          7 7 7 7 0 1
          7 1 7 1 7 1
          7 1 7 1 7 1
          7 1 7 1 7 1
          7 1 7 7 7 1
          7 1 7 1 7 1
          7 1 7 7 7 7
          1 7 1 7 1 7
          1 7 1 7 1 7
          1 7 1 7 1 7
          1 7 1 7 1 7
          1 7 1 7 0 7
          7 11 2 11 2 11
          2 7 3 9 3 0
          2 2 2 2 5 2
          2 2 2 2 2 2
          7 2 7 2 1 7
          2 5 1 1 7 1
          1 1 1 7 7 7
          7 1 7 1 1 0
          0 1 7 1 1 1
          1 1 1 1 7 7
          1 7 7 7 7 7
          1 7 1 7 7 1
          7 1 7 1 7 1
          7 1 7 7 7 7
          7 0 7 6 7 7
          7 7 7 2 5 2
          2 2 0 9 11 0
          4 6 7 7 11 7
          11 7 11 7 11 7
          11 7 11 7 11 7
          11 7 11 7 11 7
          11 7 11 7 11 7
          11 7 11 7 11 7
          11 7 11 7 11 7
          11 7 0 6 2 6
          1 1 1 1 1 6
          1 1 1 1 7 1
          1 1 1 7 7 1
          1 1 7 7 7 7
          1 7 7 1 1 1
          1 1 1 1 1 1
          1 0 7 7 2 2
          2 2 2 1 7 1
          7 6 6 7 1 1
          1 7 1 7 1 1
          7 1 7 7 1 7
          1 1 1 7 1 1
          1 1 1 1 1 7
          1 7 1 1 1 1
          7 1 7 1 1 0
          6 2 2 5 1 7
          7 7 1 7 7 1
          7 1 1 1 7 1
          7 1 7 1 7 1
          7 1 7 1 7 1
          7 7 1 7 7 7
          1 7 7 1 7 1
          7 7 11 7 7 7
          1 7 1 0 1 7
          7 5 2 2 11 6
          6 1 1 1 1 1
          1 1 1 1 7 1
          1 1 7 1 1 7
          1 7 1 1 0 1
          1 7 1 7 1 7
          1 7 1 1 1 7
          1 7 11 5 11 11
          7 1 1 7 1 7
          1 7 7 1 7 1
          7 7 7 7 7 7
          7 7 7 1 7 7
          1 7 7 7 7 7
          1 7 1 7 1 1
          1 6 0 1 7 1
          7 7 7 1 11 7
          1 1 7 1 7 1
          7 1 7 1 7 7
          1 7 7 7 1 7
          19 7 11 18 1 7
          1 7 0 1 7 2
          5 2 5 2 2 2
          2 2 2 2 5 2
          1 7 1 6 2 1
          7 2 7 2 7 11
          0 7 1 9 7 9
          7 9 7 9 9 0
          4 7 6 7 7 1
          9 9 9 11 9 1
          7 7 6 7 7 1
          0 4 6 6 7 7
          1 11 1 7 7 7
          7 7 7 7 7 7
          7 7 7 1 7 7
          1 7 1 1 7 7
          1 1 1 1 1 1
          6 7 2 7 2 2
          5 2 1 7 1 1
          7 1 1 7 1 1
          1 1 1 1 1 7
          1 7 1 1 1 7
          0 2 2 2 2 2
          2 2 2 0 7 7
          7 7 0 2 2 2
          2 5 2 5 6 5
          2 2 1 0 2 2
          2 2 2 2 2 2
          2 2 2 2 2 2
          2 2 2 2 6 0
          4 7 1 1 7 1
          7 1 0 4 7 1
          7 9 9 1 2 2
          5 2 0 1 1 1
          7 7 7 7 7 7
          7 7 7 1 7 7
          7 7 7 7 7 7
          13 7 7 7 13 7
          7 7 7 7 13 0
          7 4 1 7 7 3
          3 3 3 3 7 3
          1 1 7 1 7 1
          7 1 7 1 0 7
          1 7 2 5 2 2
          2 2 2 2 2 2
          2 5 2 2 2 1
          2 2 5 7 7 6
          7 1 7 1 7 6
          7 6 7 6 7 6
          7 6 7 6 7 6
          7 1 5 7 1 7
          7 2 5 7 6 2
          2 7 7 1 1 7
          7 1 1 0 4 0
          7 1 7 7 1 7
          1 7 1 7 1 1
          7 1 7 1 7 1
          1 7 1 1 1 1
          1 7 1 7 7 7
          1 7 1 7 1 7
          1 7 1 7 1 7
          1 7 1 1 1 7
          1 7 1 7 1 7
          1 7 1 7 1 1
          1 1 7 1 7 1
          7 1 7 1 0 6
          2 2 2 2 5 2
          2 2 2 2 2 2
          5 2 2 2 2 2
          2 2 2 2 2 5
          2 2 2 2 5 5
          2 2 2 2 2 2
          2 2 2 5 2 2
          6 14 9 14 9 9
          1 9 1 0 7 7
          1 7 1 7 7 1
          7 1 7 1 1 0
          2 7 7 7 7 9
          9 1 1 7 1 7
          1 7 7 7 7 1
          1 1 1 6 1 1
          7 7 1 7 7 1
          1 1 7 1 1 1
          1 7 7 9 9 7
          1 9 11 11 2 11
          2 7 11 10 1 1
          10 1 7 6 6 7
          6 7 6 7 6 6
          6 7 6 7 6 7
          6 7 6 7 1 7
          1 7 7 2 7 2
          2 2 2 2 2 2
          2 2 2 2 2 1
          7 1 1 1 7 7
          7 7 1 7 1 7
          0 1 7 1 7 1
          7 1 7 1 7 1
          7 1 7 1 7 1
          7 1 7 1 7 1
          7 1 7 1 7 0
          7 9 1 1 7 1
          3 3 3 3 0 7
          1 1 1 1 7 1
          1 1 1 7 7 7
          7 7 7 7 7 7
          7 7 7 7 7 7
          7 7 7 7 0 6
          6 4 1 7 7 7
          11 7 11 7 1 7
          15 7 0 0 2 2
          2 2 7 2 2 5
          2 5 2 5 2 2
          2 2 5 2 5 2
          7 4 2 2 7 7
          7 7 7 7 7 7
          7 7 7 2 2 7
          2 2 17 7 2 2
          2 2 5 2 11 2
          2 6 7 6 0 1
          11 7 1 1 11 7
          1 7 7 1 7 11
          7 1 7 7 7 1
          7 1 11 1 7 0
          4 2 2 2 2 2
          5 6 1 7 1 7
          1 7 1 7 1 6
          7 7 7 7 7 7
          1 7 7 1 7 1
          7 1 7 1 7 1
          7 1 7 1 7 1
          0 4 6 7 1 11
          1 7 1 7 1 7
          1 7 1 7 1 7
          6 6 1 9 1 9
          1 9 9 1 9 0
          1 6 7 1 0 4
          7 7 1 1 0 2
          6 1 1 1 7 1
          7 1 0 6 21 7
          7 7 1 21 21 1
          1 7 9 0 4 4
          6 6 6 2 7 7
          1 1 7 1 1 1
          7 1 1 1 1 1
          1 7 1 0 1 6
          7 7 7 7 1 7
          7 7 7 7 7 7
          7 7 7 7 7 7
          7 7 11 11 2 0
          1 7 7 2 2 2
          0 2 9 2 2 2
          2 2 2 2 2 0
          1 7 1 7 1 7
          1 7 1 0 4 2
          7 1 1 1 6 1
          0 6 7 6 1 7
          1 7 1 7 1 7
          0 6 1 1 7 6
          7 1 0 7 1 6
          7 1 7 1 7 1
          7 1 7 1 7 1
          7 1 0 7 7 1
          6 1 1 6 7 7
          6 2 1 1 7 1
          7 1 7 1 7 7
          1 7 1 7 7 7
          1 7 7 1 7 1
          7 1 7 7 1 9
          7 1 7 1 7 1
          7 1 6 6 6 0
          7 4 1 7 1 1
          7 7 7 6 1 7
          7 1 7 1 0 7
          6 7 6 6 7 7
          7 6 1 7 1 0
          1 1 1 7 1 0
          4 6 7 1 7 1
          7 7 7 1 7 1
          1 1 0 4 2 2
          5 2 7 6 1 0
          2 4 2 2 2 2
          2 5 2 2 7 2
          6 1 7 1 1 6
          6 0 1 1 7 7
          1 1 7 7 1 7
          1 7 1 7 1 7
          7 7 7 1 7 7
          1 0 4 0 1 1
          1 7 1 0 4 7
          1 7 7 1 7 1
          1 7 1 0 1 7
          1 7 1 0 4 7
          1 7 7 7 1 7
          7 7 7 1 1 1
          1 7 1 1 1 1
          1 1 7 1 1 1
          7 1 1 0 4 6
          6 11 6 11 7 6
          11 1 7 1 7 1
          11 1 7 1 1 1
          1 7 1 7 0 6
          7 1 7 1 7 7
          7 1 7 7 7 1
          7 1 7 1 7 1
          0 7 2 7 1 7
          4 6 0 2 2 5
          2 6 1 1 1 7
          1 7 1 7 7 1
          7 1 0 1 6 1
          7 1 7 1 7 1
          7 1 7 1 7 1
          7 1 7 0 1 1
          6 7 19 1 7 19
          7 19 7 19 19 7
          7 7 1 7 0 6
          7 1 7 1 7 7
          7 1 7 7 7 1
          7 7 7 1 0 6
          1 0 4 2 1 6
          1 7 7 1 1 7
          1 7 1 7 2 5
          5 2 5 2 5 5
          7 7 5 2 5 2
          2 2 2 0 7 6
          7 6 7 1 7 7
          1 0 1 1 1 7
          1 6 1 1 7 1
          2 1 1 7 7 7
          7 7 1 7 7 1
          7 1 7 7 1 7
          7 1 9 7 11 1
          7 9 9 9 9 9
          0 7 1 7 1 1
          1 7 1 1 7 1
          7 1 0 6 7 1
          7 1 7 1 7 1
          7 7 0 4 7 6
          7 1 7 1 7 1
          7 1 7 1 7 1
          7 1 7 1 7 1
          7 1 7 1 7 7
          1 7 1 7 1 0
          4 2 0 7 2 7
          1 7 7 1 7 7
          7 7 6 6 7 6
          6 0 1 6 6 7
          6 7 1 0 6 7
          6 1 7 1 0 6
          6 21 21 7 21 21
          21 7 7 1 1 1
          21 21 21 7 7 7
          7 7 7 1 1 9
          9 1 9 9 9 1
          1 1 9 9 1 9
          9 9 9 9 9 7
          6 6 0 9 7 6
          6 6 7 7 7 7
          7 7 7 7 7 7
          1 7 7 0 2 2
          2 2 2 2 2 2
          2 2 2 2 2 5
          6 1 6 7 6 7
          7 7 7 1 7 1
          7 7 1 7 7 1
          7 1 7 1 7 1
          7 0 0 6 7 1
          1 7 1 7 1 7
          1 7 1 7 1 7
          1 7 1 7 1 7
          1 7 1 7 1 7
          1 7 1 7 1 0
          2 7 2 7 2 2
          2 7 7 2 2 2
          2 2 2 2 6 0
          4 7 1 7 1 7
          1 7 1 1 1 7
          1 7 1 1 7 1
          7 7 1 1 7 1
          1 0 1 7 7 1
          0 7 1 7 1 9
          1 1 9 9 1 9
          1 9 1 9 1 9
          7 1 0 2 2 5
          2 2 5 2 6 7
          1 7 1 7 1 0
          1 7 6 6 6 9
          1 9 9 9 9 9
          1 0 2 2 2 2
          2 2 5 2 2 2
          2 2 2 2 2 5
          2 2 2 2 2 2
          2 2 7 1 7 1
          7 1 1 7 0 4
          1 1 1 1 7 7
          1 7 7 1 7 7
          7 1 1 1 1 1
          1 1 1 7 1 7
          1 7 11 2 11 2
          7 11 7 17 7 11
          15 11 11 7 11 3
          11 18 11 18 2 11
          2 11 7 11 2 11
          24 11 0 11 7 7
          18 2 7 2 7 13
          24 7 17 7 11 11
          7 24 11 0 7 7
          18 2 24 7 11 7
          11 7 7 11 15 24
          24 7 1 2 1 6
          1 7 7 7 1 7
          7 2 2 7 1 7
          2 1 7 1 2 7
          1 2 1 2 7 2
          1 2 2 1 7 1
          15 1 17 17 0 1
          1 7 1 1 7 2
          1 2 1 2 7 22
          1 1 1 7 1 17
          7 1 1 11 1 7
          22 22 0 7 11 1
          1 1 13 13 7 13
          11 7 11 7 11 13
          11 11 7 11 11 13
          11 2 7 11 11 11
          2 11 2 11 13 11
          13 2 2 2 13 17
          11 24 17 13 17 17
          17 7 1 7 1 1
          1 7 1 7 1 7
          1 7 1 7 1 7
          1 7 1 7 1 7
          1 7 1 7 1 7
          1 7 1 7 1 7
          1 7 1 7 1 7
          1 7 1 7 1 7
          0 6 1 1 7 7
          1 7 1 7 1 1
          1 7 7 1 7 7
          3 7 7 7 7 2
          2 7 1 7 22 22
          7 0 2 1 7 1
          7 1 7 1 7 7
          1 7 1 7 1 7
          1 7 1 7 1 7
          1 7 1 7 7 7
          7 7 26 7 1 7
          7 7 1 18 7 1
          7 0 1 1 7 7
          1 7 7 1 1 7
          1 7 1 7 1 7
          1 11 7 11 7 0
          0 1 7 1 7 1
          7 1 7 7 1 1
          1 7 1 1 7 1
          7 1 7 1 7 1
          7 1 7 1 7 1
          0 1 1 7 1 7
          1 7 1 7 1 7
          7 1 7 1 1 7
          7 7 7 7 7 1
          7 1 7 1 7 7
          7 1 7 7 1 7
          1 7 1 7 1 7
          7 7 7 7 1 7
          1 7 0 4 1 2
          1 7 7 7 7 7
          7 1 7 1 7 7
          7 7 7 7 7 9
          0 4 7 1 7 1
          1 1 1 7 7 7
          1 7 1 7 1 7
          1 7 1 7 1 1
          1 7 1 7 1 1
          7 1 1 1 7 1
          7 1 7 7 1 1
          7 1 7 0 1 7
          1 1 1 1 7 1
          7 7 1 7 7 7
          1 7 1 7 7 11
          7 6 7 0 1 7
          1 7 1 7 7 7
          7 7 7 1 7 1
          1 7 7 1 1 1
          6 1 7 7 7 1
          7 7 2 2 7 1
          7 2 1 7 1 2
          7 1 2 1 2 7
          2 1 2 2 1 7
          1 15 1 17 17 9
          11 11 9 11 1 1
          7 1 7 11 11 9
          11 9 11 11 9 1
          11 11 9 7 9 11
          9 7 7 7 9 9
          7 7 7 11 7 9
          9 11 2 15 2 9
          1 2 11 2 1 9
          0 7 7 7 2 1
          1 9 11 9 11 9
          11 9 1 11 9 18
          9 11 18 0 2 7
          2 2 2 7 1 1
          1 7 1 1 7 7
          7 7 7 11 7 1
          7 0 11 11 18 7
          11 18 1 2 13 2
          7 2 7 1 17 17
          17 17 1 1 1 1
          2 1 2 7 7 1
          7 2 27 7 2 7
          2 7 1 17 0 6
          7 7 7 9 7 7
          7 7 11 7 1 7
          0 4 7 7 7 1
          6 7 1 7 7 7
          7 1 7 1 7 1
          6 7 7 7 1 9
          9 1 9 1 9 9
          1 1 9 9 9 9
          18 1 11 11 18 9
          18 11 18 9 9 9
          18 9 18 9 18 9
          18 9 18 9 15 9
          15 9 15 18 15 9
          18 15 9 18 9 18
          0 1 7 1 7 1
          1 1 7 1 7 1
          7 1 7 1 7 1
          7 1 7 1 7 1
          7 0 6 7 1 0
          2 6 1 0 4 7
          7 6 1 7 1 7
          7 7 1 7 1 7
          1 7 7 7 1 7
          7 1 0 1 7 1
          7 1 7 1 7 1
          7 1 7 1 7 1
          7 1 7 1 7 1
          7 1 7 1 1 1
          7 1 7 1 1 7
          1 7 1 1 7 1
          7 1 7 1 7 1
          9 1 2 0 7 6
          7 7 7 7 7 7
          1 7 9 7 11 7
          7 7 1 9 1 9
          1 7 1 7 9 18
          11 9 18 9 7 9
          11 11 9 11 9 11
          9 9 18 9 1 18
          18 9 1 9 18 9
          11 11 11 18 11 11
          11 11 9 11 9 0
          4 1 7 1 7 1
          7 1 7 1 7 1
          7 1 7 1 7 1
          1 1 7 1 7 1
          7 1 7 1 7 1
          7 1 7 1 7 0
          1 1 1 11 1 7
          1 11 1 1 11 1
          0 4 2 5 2 1
          2 6 1 1
        </DataArray>
      </CellData>
      <Points>
        <DataArray type="Float64" Name="Points" NumberOfComponents="3" format="ascii" RangeMin="4814402.781144323" RangeMax="4906010.015723973">
          575546.6288341067 4820354.913615938 9612 575546.6288341067 4820354.913615938 9607
          575546.6288341067 4820354.913615938 9607 575546.6288341067 4820354.913615938 9347
          575546.6288341067 4820354.913615938 9347 575546.6288341067 4820354.913615938 8372
          575546.6288341067 4820354.913615938 8372 575546.6288341067 4820354.913615938 8287
          575546.6288341067 4820354.913615938 8287 575546.6288341067 4820354.913615938 7997
          575546.6288341067 4820354.913615938 7997 575546.6288341067 4820354.913615938 7722
          575546.6288341067 4820354.913615938 7722 575546.6288341067 4820354.913615938 7507
          575546.6288341067 4820354.913615938 7507 575546.6288341067 4820354.913615938 7397
          575546.6288341067 4820354.913615938 7397 575546.6288341067 4820354.913615938 7162
          575546.6288341067 4820354.913615938 7162 575546.6288341067 4820354.913615938 7102
          575546.6288341067 4820354.913615938 7102 575546.6288341067 4820354.913615938 6832
          575546.6288341067 4820354.913615938 6832 575546.6288341067 4820354.913615938 6792
          575546.6288341067 4820354.913615938 6792 575546.6288341067 4820354.913615938 6612
          564600.366581897 4807827.447421121 8901.599999999999 564600.366581897 4807827.447421121 8891.599999999999
          564600.366581897 4807827.447421121 8891.599999999999 564600.366581897 4807827.447421121 8861.599999999999
          564600.366581897 4807827.447421121 8861.599999999999 564600.366581897 4807827.447421121 8701.599999999999
          564600.366581897 4807827.447421121 8701.599999999999 564600.366581897 4807827.447421121 8626.599999999999
          564600.366581897 4807827.447421121 8626.599999999999 564600.366581897 4807827.447421121 8611.599999999999
          564600.366581897 4807827.447421121 8611.599999999999 564600.366581897 4807827.447421121 8576.599999999999
          564600.366581897 4807827.447421121 8576.599999999999 564600.366581897 4807827.447421121 8551.599999999999
          564600.366581897 4807827.447421121 8551.599999999999 564600.366581897 4807827.447421121 8526.599999999999
          564600.366581897 4807827.447421121 8526.599999999999 564600.366581897 4807827.447421121 7951.5999999999985
          564600.366581897 4807827.447421121 7951.5999999999985 564600.366581897 4807827.447421121 7901.5999999999985
          564600.366581897 4807827.447421121 7901.5999999999985 564600.366581897 4807827.447421121 7851.5999999999985
          564600.366581897 4807827.447421121 7851.5999999999985 564600.366581897 4807827.447421121 7801.5999999999985
          564600.366581897 4807827.447421121 7801.5999999999985 564600.366581897 4807827.447421121 7791.5999999999985
          564600.366581897 4807827.447421121 7791.5999999999985 564600.366581897 4807827.447421121 6826.5999999999985
          564600.366581897 4807827.447421121 6826.5999999999985 564600.366581897 4807827.447421121 6701.5999999999985
          558944.8434036992 4789663.819913369 9504.900000000001 558944.8434036992 4789663.819913369 9479.900000000001
          558944.8434036992 4789663.819913369 9479.900000000001 558944.8434036992 4789663.819913369 9324.900000000001
          558944.8434036992 4789663.819913369 9324.900000000001 558944.8434036992 4789663.819913369 9304.900000000001
          558944.8434036992 4789663.819913369 9304.900000000001 558944.8434036992 4789663.819913369 8954.900000000001
          558944.8434036992 4789663.819913369 8954.900000000001 558944.8434036992 4789663.819913369 8794.900000000001
          558944.8434036992 4789663.819913369 8794.900000000001 558944.8434036992 4789663.819913369 8754.900000000001
          558944.8434036992 4789663.819913369 8754.900000000001 558944.8434036992 4789663.819913369 8629.900000000001
          558944.8434036992 4789663.819913369 8629.900000000001 558944.8434036992 4789663.819913369 8574.900000000001
          558944.8434036992 4789663.819913369 8574.900000000001 558944.8434036992 4789663.819913369 8554.900000000001
          558944.8434036992 4789663.819913369 8354.900000000001 558944.8434036992 4789663.819913369 8054.9000000000015
          558944.8434036992 4789663.819913369 8054.9000000000015 558944.8434036992 4789663.819913369 7854.9000000000015
          558944.8434036992 4789663.819913369 7854.9000000000015 558944.8434036992 4789663.819913369 7814.9000000000015
          558944.8434036992 4789663.819913369 7814.9000000000015 558944.8434036992 4789663.819913369 7804.9000000000015
          558944.8434036992 4789663.819913369 7804.9000000000015 558944.8434036992 4789663.819913369 7729.9000000000015
          558944.8434036992 4789663.819913369 7779.9000000000015 558944.8434036992 4789663.819913369 7454.9000000000015
          558944.8434036992 4789663.819913369 7729.9000000000015 558944.8434036992 4789663.819913369 7629.9000000000015
          558944.8434036992 4789663.819913369 7629.9000000000015 558944.8434036992 4789663.819913369 7579.9000000000015
          558944.8434036992 4789663.819913369 7579.9000000000015 558944.8434036992 4789663.819913369 7554.9000000000015
          558944.8434036992 4789663.819913369 7554.9000000000015 558944.8434036992 4789663.819913369 7779.9000000000015
          558944.8434036992 4789663.819913369 7454.9000000000015 558944.8434036992 4789663.819913369 7229.9000000000015
          558944.8434036992 4789663.819913369 7229.9000000000015 558944.8434036992 4789663.819913369 7204.9000000000015
          558944.8434036992 4789663.819913369 7204.9000000000015 558944.8434036992 4789663.819913369 6979.9000000000015
          558944.8434036992 4789663.819913369 6729.9000000000015 558944.8434036992 4789663.819913369 6449.9000000000015
          558944.8434036992 4789663.819913369 6449.9000000000015 558944.8434036992 4789663.819913369 6434.9000000000015
          558944.8434036992 4789663.819913369 6434.9000000000015 558944.8434036992 4789663.819913369 5594.9000000000015
          558944.8434036992 4789663.819913369 5594.9000000000015 558944.8434036992 4789663.819913369 5529.9000000000015
          519259.0061591667 4810958.617480122 6837.299999999999 519259.0061591667 4810958.617480122 6687.299999999999
          519259.0061591667 4810958.617480122 6687.299999999999 519259.0061591667 4810958.617480122 6682.299999999999
          519259.0061591667 4810958.617480122 6682.299999999999 519259.0061591667 4810958.617480122 5712.299999999999
          519259.0061591667 4810958.617480122 4837.299999999999 519259.0061591667 4810958.617480122 4737.299999999999
          585351.1502703554 4811459.503098121 11545.8 585351.1502703554 4811459.503098121 11345.8
          585351.1502703554 4811459.503098121 11345.8 585351.1502703554 4811459.503098121 6845.799999999999
          585351.1502703554 4811459.503098121 6845.799999999999 585351.1502703554 4811459.503098121 6840.799999999999
          585351.1502703554 4811459.503098121 6840.799999999999 585351.1502703554 4811459.503098121 5845.799999999999
          585351.1502703554 4811459.503098121 5845.799999999999 585351.1502703554 4811459.503098121 5840.799999999999
          527291.1038314103 4806228.485512365 8137.200000000001 527291.1038314103 4806228.485512365 8127.200000000001
          527291.1038314103 4806228.485512365 8127.200000000001 527291.1038314103 4806228.485512365 8097.200000000001
          527291.1038314103 4806228.485512365 8097.200000000001 527291.1038314103 4806228.485512365 7212.200000000001
          527291.1038314103 4806228.485512365 7212.200000000001 527291.1038314103 4806228.485512365 6912.200000000001
          527291.1038314103 4806228.485512365 6912.200000000001 527291.1038314103 4806228.485512365 6752.200000000001
          527291.1038314103 4806228.485512365 6752.200000000001 527291.1038314103 4806228.485512365 6627.200000000001
          527291.1038314103 4806228.485512365 6627.200000000001 527291.1038314103 4806228.485512365 6312.200000000001